/*--------------------------------*- C++ -*----------------------------------*\
| =========                 |                                                 |
| \\      /  F ield         | OpenFOAM: The Open Source CFD Toolbox           |
|  \\    /   O peration     | Version:  4.1                                   |
|   \\  /    A nd           | Web:      www.OpenFOAM.org                      |
|    \\/     M anipulation  |                                                 |
\*---------------------------------------------------------------------------*/
FoamFile
{
    version     2.0;
    format      ascii;
    class       volVectorField;
    location    "0.45";
    object      U;
}
// * * * * * * * * * * * * * * * * * * * * * * * * * * * * * * * * * * * * * //

dimensions      [0 1 -1 0 0 0 0];

internalField   nonuniform List<vector> 
181
(
(-0.0414911 0.10282 0.22303)
(0.0734154 0.0763015 0.187054)
(0.0387359 0.122841 0.325415)
(0.101752 0.0847162 0.324283)
(0.0165212 0.211518 0.249433)
(0.147087 0.133276 0.226579)
(0.0324717 0.158739 0.300934)
(0.133667 0.334871 0.470479)
(-0.167243 0.0430238 0.480694)
(0.143621 -0.0583564 0.240378)
(0.0539406 0.27747 0.386241)
(-0.100975 0.164623 0.484745)
(0.0979101 0.0988437 0.275405)
(-0.202633 0.115992 0.239921)
(0.0260695 -0.0341131 0.110147)
(0.13285 0.0657962 0.514096)
(-0.200175 -0.149357 0.48852)
(0.156165 -0.0963359 0.352838)
(0.295298 0.0104286 0.622217)
(0.16832 0.159298 0.121139)
(-0.0297919 -0.277218 0.405354)
(0.678684 -0.454901 0.163669)
(-0.392192 0.323037 0.858527)
(-0.0485799 0.153636 -0.650939)
(0.0453088 -0.0548831 0.533816)
(1.40562 -1.06524 0.54527)
(0.3772 0.187376 0.794504)
(0.182909 -0.167476 0.305357)
(0.0931655 -0.0706315 0.549551)
(0.692839 -0.450292 -0.130546)
(-0.0830634 0.447994 0.770102)
(-0.500724 2.41036 -0.652818)
(0.560222 0.00800323 -1.62215)
(-0.0320606 0.495957 -0.215176)
(0.195558 0.0333605 0.382809)
(0.304313 -0.0653473 0.97786)
(0.0783343 0.00748105 0.231814)
(0.134896 -0.168072 0.208876)
(-0.159787 -0.117787 0.472319)
(0.063188 0.338377 2.94759)
(-0.236241 2.6044 1.73165)
(-0.134238 2.79505 2.56729)
(0.459779 -0.206903 -1.61169)
(0.966945 0.533913 1.63534)
(0.123878 -0.605193 0.639122)
(0.228946 0.134716 1.85192)
(-0.183344 0.659504 0.154608)
(0.14019 10.6322 8.59291)
(-1.97155 0.156095 2.00066)
(-0.684551 0.380813 3.61443)
(-0.797383 1.4751 0.260084)
(1.45545 0.715335 1.55538)
(3.69424 0.187701 4.34951)
(-0.715969 -0.879483 2.5453)
(0.770963 1.25505 1.15342)
(-0.194744 3.97129 3.22937)
(-2.72014 5.70429 7.23628)
(-3.53746 -1.04907 2.90717)
(-0.278108 0.554964 -0.0424964)
(-3.81204 -3.13588 3.8931)
(0.410783 0.844362 3.37974)
(0.0444478 -0.136614 -0.127309)
(-0.17507 0.0042085 1.74644)
(-0.4203 0.387503 -0.446576)
(-1.74699 0.417418 2.2814)
(-0.26006 -1.91795 0.861985)
(-2.65582 -0.842806 2.12269)
(2.2945 -3.37146 3.39971)
(-0.698938 -0.54676 -0.366166)
(0.754317 -0.334063 1.00195)
(-0.0645576 -0.521153 2.05919)
(-0.330855 -0.801897 0.741775)
(-0.34974 -0.0902659 -0.0571742)
(-0.359341 -0.352268 -1.32706)
(-0.296439 -0.744059 -0.972423)
(-3.75551 -0.172591 3.83464)
(7.45077 1.76788 -0.633636)
(2.18731 1.26179 0.0791374)
(1.55214 -0.179122 1.65677)
(-0.302972 0.77791 1.42588)
(-0.208803 0.670017 -0.404824)
(0.0560165 0.0998134 -0.180447)
(-0.116411 -0.0864155 -0.0816322)
(-0.0329853 -0.0129034 -0.143387)
(-0.682956 0.106278 -0.935506)
(-0.208546 0.182722 1.06533)
(0.305927 0.242935 0.384574)
(-0.06312 -0.0194297 0.235611)
(-0.103327 0.0375451 0.218489)
(-0.769342 -0.44775 0.675333)
(0.00786679 0.275581 0.436688)
(0.00362897 -0.0187454 0.286066)
(0.00950784 0.00205218 0.267527)
(-0.0216144 0.0542615 0.347232)
(-0.119644 0.0473085 0.494958)
(-0.034114 0.00596068 0.417412)
(-0.0454658 -0.00829064 0.377107)
(-0.133596 0.112361 0.300435)
(-0.0215216 -0.044401 0.396737)
(-0.0785012 -0.0896359 0.298249)
(0.00470868 0.00328195 0.356738)
(-0.0643664 -0.00961285 0.302308)
(-0.148246 0.086054 0.193448)
(-0.109861 -0.0185876 0.343845)
(0.0350594 0.0515315 0.222458)
(-0.0319234 0.0826718 0.40259)
(0.0140117 -0.0423171 0.432736)
(-0.0479932 0.0398995 0.422252)
(-0.0162304 -0.0148572 0.0439248)
(0.153776 0.160444 0.333937)
(-0.0152681 0.137281 0.269836)
(-0.051751 -0.037409 0.283107)
(-0.033109 0.014819 0.0609459)
(0.198211 0.0309928 0.339797)
(0.0484389 -0.0993416 0.346561)
(-0.00304842 -0.079821 0.321118)
(0.0797706 -0.00509404 0.41744)
(-0.0554027 -0.0219583 0.256333)
(0.00634331 0.156443 0.272387)
(0.00534651 -0.150813 0.197766)
(-0.0745914 -0.00337713 0.40489)
(-0.0624742 -0.191651 0.465925)
(-0.103405 -0.0344617 0.414086)
(0.0253036 0.0271493 0.120347)
(0.109593 0.0626531 0.40189)
(0.000696375 0.0701863 0.279345)
(0.512971 -0.626275 0.547819)
(-0.0175027 -0.0563332 0.376064)
(-0.0423736 0.108874 0.357063)
(0.0873723 0.140164 0.194345)
(-0.0232039 -0.0562554 0.172833)
(0.218363 -0.127242 0.173556)
(0.364223 0.213158 1.29201)
(-0.00181294 0.0585729 0.359757)
(-0.0186756 0.116103 0.217019)
(-0.131581 0.0158478 0.280043)
(0.160715 -0.0334099 0.49842)
(2.2465 -1.5863 1.51525)
(-0.721712 0.897796 1.53867)
(-0.0207185 0.160229 0.506009)
(0.0830224 -0.11754 0.657816)
(0.0180418 0.251754 0.437281)
(1.80083 -1.27993 1.79664)
(5.95222 -5.13814 4.31277)
(1.64096 -3.17736 3.06944)
(-0.0891328 0.524372 0.823566)
(0.220632 -0.231138 0.477077)
(0.300021 0.0482671 1.669)
(0.220395 0.0641358 0.110862)
(-0.0320631 -0.454593 0.266793)
(0.114773 0.249973 0.242983)
(-0.284673 -0.144919 0.724615)
(0.443471 0.162598 0.601363)
(0.558885 -1.48519 1.34475)
(0.41104 -0.195822 0.72351)
(0.630441 -0.915422 -0.337335)
(-0.0347288 0.00357816 0.082212)
(-0.0095727 -0.213618 0.930791)
(-0.327744 -0.219465 1.23078)
(-0.655093 -0.858832 1.85833)
(0.695061 -0.178561 0.979182)
(0.238947 -0.265996 0.540911)
(-0.246916 -0.043451 0.625013)
(0.097048 0.0400584 0.886326)
(-1.23163 -1.11095 4.82408)
(-0.194237 -1.39016 2.0755)
(0.559139 0.481366 0.384142)
(0.025106 0.24529 0.73355)
(0.20842 1.21735 1.19667)
(-0.182246 -0.169751 0.623946)
(0.309958 -0.0690345 0.673207)
(0.41867 -0.0381907 1.50054)
(0.0371203 0.494073 0.67165)
(-0.062064 -0.010781 1.44759)
(0.0210479 0.00750574 0.990853)
(0.122529 -0.150981 0.674368)
(0.226606 -0.261861 0.582509)
(0.0462736 0.0614183 0.887514)
(-0.0914183 -1.14501 1.06398)
(-0.0548404 -0.123964 1.0155)
(0.0118785 -0.27938 0.941818)
)
;

boundaryField
{
    front
    {
        type            noSlip;
    }
    outlet
    {
        type            zeroGradient;
    }
    sides
    {
        type            slip;
    }
    inlet
    {
        type            fixedValue;
        value           uniform (0 0 1);
    }
}


// ************************************************************************* //
